500
Atoms. Timestep: 0
1 -0.0646084 -0.151962 20.322
1 1.89604 1.94175 -0.0264652
1 1.91668 20.2728 1.85938
1 -0.0358472 1.93746 1.62789
1 3.88046 20.2938 -0.154043
1 5.88792 1.99229 -0.0805114
1 6.14682 -0.134691 1.84069
1 4.02302 1.83837 1.90511
1 8.05737 -0.0287636 20.364
1 9.92581 2.07196 20.1969
1 10.1737 20.2184 1.71112
1 8.09305 1.81858 1.89074
1 12.074 -0.0980061 20.2791
1 14.0899 1.87873 -0.0516347
1 14.4434 -0.144766 1.8149
1 12.0435 1.70669 1.87027
1 16.321 0.0134687 20.3546
1 18.4408 2.02827 20.3342
1 18.4175 -0.143322 1.83621
1 16.3435 1.97402 1.64858
1 -0.107248 4.18534 20.228
1 1.92551 5.87252 -0.143045
1 1.82154 4.05726 2.03256
1 -0.0854127 6.08305 1.92843
1 3.82395 3.89147 0.146087
1 6.02488 6.05959 20.3024
1 6.0446 3.81024 1.78948
1 3.75127 6.05686 1.92029
1 8.08035 4.27832 20.3651
1 10.0019 6.12946 20.4046
1 10.1961 3.91958 1.79257
1 7.96029 6.03765 2.00415
1 12.1751 3.86796 20.3508
1 14.1063 6.07151 20.2922
1 13.9396 3.93555 1.94184
1 11.9618 6.34218 1.82945
1 16.2712 4.12712 20.4031
1 18.3101 6.048 20.3499
1 18.3277 4.12571 1.72809
1 15.9606 6.05131 1.81918
1 20.3567 8.18746 20.3622
1 1.99202 9.90478 -0.0562335
1 1.7685 8.02785 2.19501
1 20.3521 9.85037 1.98037
1 3.99525 8.16893 -0.00452193
1 5.90366 10.145 -0.105607
1 6.06342 8.03824 1.93889
1 3.87936 10.0343 2.05269
1 8.13069 8.19304 -0.0208602
1 9.97293 10.2299 20.2617
1 10.2574 8.45785 1.83574
1 8.02338 10.1916 2.09907
1 12.0136 8.15529 20.2418
1 14.2427 10.0805 20.3998
1 14.1832 8.21167 1.80225
1 12.1467 10.3947 1.75323
1 16.1115 8.10189 0.0413884
1 18.2891 10.0596 -0.0749883
1 18.3442 8.08703 2.01147
1 16.2019 10.2621 1.91566
1 20.343 12.049 20.3704
1 1.83958 14.1584 20.4038
1 1.65493 11.9186 2.07685
1 -0.157159 14.2572 2.04496
1 3.77331 12.0189 0.0417337
1 6.10843 14.2503 20.3467
1 5.91462 12.2369 1.94785
1 3.90613 14.1039 1.99638
1 7.93621 12.1555 -0.0129783
1 9.98233 14.3031 -0.0224522
1 9.98785 12.3409 1.80301
1 7.92341 14.3784 1.91927
1 12.0616 12.3397 20.3694
1 14.2422 14.1391 0.0926452
1 14.3178 12.2674 2.02789
1 12.3451 14.2276 1.96839
1 16.3399 12.318 0.160019
1 18.6383 14.2063 -0.15072
1 18.553 12.1186 2.0867
1 16.5645 14.4346 1.90489
1 20.4063 16.2232 20.3029
1 1.77229 18.2376 20.3023
1 1.86993 16.0761 1.96087
1 -0.0236405 18.3068 1.81706
1 3.9617 16.2758 -0.0731585
1 6.23091 18.4597 20.3231
1 5.86309 16.2609 1.80557
1 3.99452 18.4789 1.87909
1 8.03615 16.3988 20.2974
1 10.098 18.424 -0.134927
1 10.4265 16.1381 2.00562
1 8.07764 18.3087 1.99159
1 12.3378 16.3516 0.0719698
1 14.2656 18.5496 -0.0974886
1 14.4991 16.4441 1.77975
1 12.1835 18.339 1.91663
1 16.404 16.1721 -0.0932715
1 18.2802 18.2724 -0.0515699
1 18.6343 16.5031 2.02538
1 16.3166 18.4715 1.9272
1 20.3651 -0.0906596 3.88009
1 1.99951 1.92747 3.88449
1 1.80176 -0.0865432 5.92754
1 -0.0537805 1.91316 6.00477
1 3.99355 -0.0727545 4.02252
1 6.08998 2.05854 3.87445
1 6.07471 -0.143126 5.99819
1 3.8566 1.83474 6.06066
1 8.25571 20.2227 3.72028
1 10.2368 1.8953 3.84314
1 10.2097 20.328 5.93455
1 8.0436 1.84608 5.86097
1 12.3944 20.257 3.97067
1 14.088 1.9533 3.89801
1 14.3568 20.3227 5.94196
1 12.0742 1.8615 5.92918
1 16.0205 0.0795928 3.87081
1 18.3579 1.76849 3.63691
1 18.4003 -0.0171046 6.0238
1 16.3668 1.89573 5.99066
1 20.1365 3.88132 3.71467
1 1.75317 5.97163 4.0965
1 1.63249 3.8177 6.12556
1 20.2663 5.85667 5.91399
1 3.95978 3.94782 3.92451
1 6.181 5.84346 3.86646
1 6.26675 4.0586 5.86145
1 3.88664 5.4344 6.021
1 8.23157 3.86553 3.84583
1 10.0497 6.29236 3.8947
1 10.1373 3.86486 5.92853
1 8.02057 5.9546 6.16467
1 12.2239 4.15064 4.07458
1 14.232 6.16056 3.86533
1 14.2837 3.98148 6.142
1 12.2768 6.05524 5.86484
1 16.0798 3.76583 3.97175
1 18.0624 5.87612 3.84712
1 18.4063 3.9192 5.96647
1 15.9732 6.03927 6.02291
1 -0.131756 8.04525 4.33071
1 1.88308 10.1424 4.01969
1 1.93052 7.87623 6.1218
1 -0.00632511 10.1923 6.1551
1 4.07108 8.05357 4.20053
1 5.96011 10.0326 4.00255
1 6.32222 7.96524 6.13268
1 3.82787 9.91855 6.18756
1 8.12441 8.11463 3.81221
1 10.0313 10.2341 3.98281
1 10.1769 8.2178 5.93318
1 8.01633 10.0919 6.10088
1 12.1638 8.04933 3.90857
1 14.3151 10.237 4.05297
1 14.1551 7.89952 6.05155
1 12.0958 10.1265 5.95234
1 16.4427 8.31089 4.01218
1 18.3418 10.2554 3.9339
1 18.1698 7.99776 5.90108
1 16.2789 10.3806 6.08122
1 -0.0780307 12.1798 4.08777
1 1.92841 14.1978 4.15618
1 1.84856 12.2763 6.22006
1 20.2235 14.2504 6.07438
1 4.0126 12.1121 4.0104
1 6.14268 14.2772 4.03054
1 6.00743 12.3413 6.01399
1 3.99489 14.2238 5.96387
1 8.22896 12.3795 4.04879
1 10.2094 14.1049 4.06298
1 10.1548 12.0778 6.12775
1 8.18663 14.3294 5.99091
1 12.1961 12.1213 3.92609
1 14.2515 14.2224 3.88213
1 14.138 12.1008 6.13789
1 12.3058 14.3475 5.94274
1 16.3538 12.3296 3.72913
1 18.3283 14.1745 3.83334
1 18.5119 12.0783 5.91086
1 16.0822 13.9643 6.16239
1 -0.0193244 16.2668 4.04339
1 1.8956 18.3455 3.90875
1 1.92612 16.3166 5.9687
1 20.2916 18.2725 5.93072
1 3.76536 16.4849 3.88686
1 6.02821 18.3576 3.8017
1 5.87799 16.3216 5.93548
1 4.18384 18.4735 5.85324
1 8.00272 16.2334 3.9529
1 10.0934 18.1432 3.79335
1 10.0919 16.2045 5.99232
1 8.00658 18.1585 5.95664
1 12.2396 16.3825 3.90418
1 14.2388 18.3575 3.85663
1 14.2865 16.4485 6.03184
1 12.0634 18.3675 5.98724
1 16.2348 16.2188 4.09729
1 18.2519 18.7481 3.98611
1 18.3015 16.1976 5.95087
1 16.2942 18.3638 6.04978
1 20.287 -0.0143308 8.13566
1 1.92242 1.72829 7.96423
1 1.78084 20.2974 10.337
1 -0.154828 1.85224 10.113
1 4.03759 20.2201 8.25976
1 5.83915 2.02192 8.08406
1 6.09621 20.3346 10.2342
1 3.77489 1.75928 10.1233
1 7.97592 20.3629 7.90414
1 10.0817 1.78079 8.07639
1 10.1566 -0.0456655 10.1853
1 8.01797 1.58466 10.1457
1 12.1755 20.2571 7.97747
1 14.1738 1.80839 7.99844
1 14.4537 -0.155323 10.1459
1 12.4237 1.99627 10.2682
1 16.252 20.1987 8.04672
1 18.2943 2.02728 7.90077
1 18.4287 20.3676 10.0582
1 16.3331 1.7608 10.079
1 20.1928 3.99019 8.04631
1 1.79077 5.94979 7.91942
1 1.84439 3.91125 9.99166
1 -0.0559692 5.91792 10.1513
1 3.82363 3.77946 8.08413
1 5.98206 5.64119 8.08477
1 6.15289 3.8134 10.1498
1 3.99929 5.80063 9.93486
1 8.29344 3.77171 8.07227
1 10.1074 6.14495 7.99384
1 10.234 3.87596 10.0843
1 8.23433 5.96979 10.0261
1 12.1353 4.0276 8.0816
1 14.0942 5.85834 8.1065
1 14.3155 3.95044 10.1984
1 12.3799 5.60545 10.2435
1 16.3251 3.92527 8.31494
1 18.209 5.9232 8.02469
1 18.5052 3.86411 10.1514
1 16.2433 5.84115 10.3052
1 20.2796 7.75132 7.87052
1 1.78637 10.3105 8.21807
1 2.00933 8.20186 9.96902
1 -0.0566136 9.93612 9.95564
1 4.12795 7.65862 7.88432
1 5.92873 10.2627 8.06378
1 5.82634 7.99677 10.184
1 4.00257 10.2093 9.94776
1 7.89799 8.04503 8.28731
1 10.0507 9.9299 8.10483
1 10.2586 7.86789 10.2424
1 8.16932 10.1473 10.0555
1 12.1654 7.92253 8.11051
1 14.1982 10.0242 8.07847
1 14.3135 8.10562 10.0753
1 12.0624 10.1357 9.78857
1 16.2957 7.97485 8.20234
1 18.2734 9.74506 7.94163
1 18.3598 8.04557 10.1833
1 16.129 10.0164 10.1559
1 20.1609 12.3221 8.02357
1 1.80415 14.1747 8.22006
1 1.75223 12.2286 10.0872
1 20.0648 14.2951 10.0659
1 3.83247 12.2753 8.01073
1 6.17663 14.2125 8.1101
1 5.96133 12.3981 10.2856
1 3.89015 14.1124 10.1585
1 7.98204 12.0532 8.15674
1 10.1446 14.1769 7.96594
1 10.366 12.2976 9.98144
1 8.08371 14.2546 10.2025
1 12.4071 12.3345 8.11572
1 14.0667 14.3285 8.05205
1 14.0846 12.0657 10.2448
1 12.0445 14.1723 10.3619
1 16.2681 12.1632 8.13838
1 18.1644 14.361 8.1926
1 18.3295 11.8179 10.0005
1 16.2395 14.27 10.2003
1 -0.038004 16.3105 8.14436
1 1.80382 18.4982 7.84989
1 1.87569 16.289 10.0803
1 -0.133303 18.3186 10.2826
1 3.79214 16.2796 8.01599
1 6.05935 18.3312 8.35997
1 6.01208 16.2324 10.0957
1 3.80647 18.2467 10.0363
1 7.98616 16.2383 7.89671
1 9.91046 18.1375 7.9685
1 10.0189 16.4664 10.1012
1 8.13705 18.5802 10.1916
1 11.9037 16.3636 8.07763
1 14.1687 18.2495 8.05702
1 14.038 16.259 9.92912
1 12.0637 18.1965 10.1966
1 16.1784 16.36 8.08359
1 18.4161 18.252 8.10098
1 18.3562 16.4237 10.1009
1 16.2394 18.3601 10.0481
1 20.3463 -0.107078 12.3398
1 1.81447 1.71211 12.1554
1 1.84586 20.3449 14.2443
1 20.3106 1.76418 14.2963
1 3.88559 20.3152 12.3238
1 5.95008 1.73797 12.1436
1 5.95429 20.3509 14.267
1 4.00068 1.80643 14.2151
1 8.09068 20.3994 12.2285
1 10.1646 2.1413 12.2403
1 10.1553 -0.0106287 14.3281
1 8.11596 1.91371 14.122
1 12.1529 20.2341 11.9955
1 14.2515 1.73704 12.2884
1 14.1424 20.277 14.2783
1 12.3304 1.79901 14.1765
1 16.358 20.185 12.1781
1 18.1497 1.79481 12.2984
1 18.0979 20.3528 14.4215
1 16.3464 1.92835 14.4338
1 -0.0294508 3.69016 12.1321
1 1.91971 6.06962 12.04
1 1.86734 3.93031 14.1803
1 0.0373811 6.04313 14.15
1 3.83585 3.73215 12.1445
1 5.87212 5.93099 12.1125
1 5.78044 3.93233 14.0758
1 3.9718 6.23519 14.0687
1 8.12882 3.8204 12.0962
1 10.1731 5.79567 12.3449
1 10.1497 3.88627 14.4978
1 8.01256 5.86495 14.1482
1 12.3811 3.96379 12.3932
1 14.3485 6.01453 12.54
1 14.3215 3.93668 14.2433
1 12.3108 6.01792 14.2796
1 16.3696 3.90849 12.2422
1 18.6104 5.97367 12.3211
1 18.464 4.09081 14.2476
1 16.3786 6.13409 14.2026
1 -0.0132868 8.06717 12.0353
1 1.74337 10.2462 12.276
1 1.70351 8.15703 14.3071
1 20.1577 10.2485 13.8999
1 3.7882 8.21746 12.1171
1 6.06039 10.1465 12.0577
1 6.11772 8.24789 14.2307
1 3.82371 10.0463 14.2035
1 8.18962 7.97334 12.0505
1 10.0141 10.3389 12.018
1 10.1451 7.98487 14.2118
1 8.18274 10.1798 13.9923
1 12.1132 8.23903 12.0956
1 14.3677 10.278 12.2352
1 14.2806 8.2335 14.3158
1 12.1588 10.1941 14.1764
1 16.3282 8.20942 12.2412
1 18.1832 10.1386 12.1571
1 18.5847 8.21834 14.032
1 16.3363 10.1817 14.3356
1 -0.12187 12.2925 11.9938
1 1.78474 14.329 12.1511
1 1.78784 12.2357 14.2292
1 20.3133 14.2324 14.3978
1 3.97523 12.2748 12.0996
1 6.18438 14.1267 12.3812
1 5.91162 12.146 14.2905
1 3.82318 14.1615 14.2387
1 8.01177 12.2859 12.363
1 10.1573 14.2148 12.1341
1 10.236 12.222 14.28
1 7.98514 14.2863 14.3381
1 12.2694 12.0079 12.236
1 14.1157 14.2212 12.0998
1 14.4389 12.2407 14.2166
1 12.2669 14.2779 14.3205
1 16.3482 12.2232 11.8858
1 18.3127 14.3506 12.1424
1 18.2641 12.1724 14.0967
1 16.2606 14.2786 14.271
1 20.3365 16.397 12.3698
1 1.98021 18.2898 12.3868
1 1.80033 16.3163 14.5036
1 20.1596 18.1736 14.4641
1 4.06077 16.3136 12.152
1 6.05562 18.3468 12.129
1 5.98341 16.1506 14.3546
1 4.07399 18.1761 14.1886
1 8.16845 16.2082 12.2109
1 10.0856 18.2828 12.469
1 10.1566 16.4462 14.3641
1 8.0371 18.4123 14.205
1 12.0195 16.2273 12.2574
1 14.2364 18.3851 12.3303
1 14.3651 16.2549 14.1011
1 12.3951 18.1705 14.4293
1 16.0365 16.4157 11.9616
1 18.2829 18.5136 12.2128
1 18.1876 16.2243 14.0253
1 16.1635 18.3781 14.4569
1 20.3058 -0.149369 16.2365
1 1.70886 1.74368 16.1874
1 1.90403 20.3835 18.417
1 -0.0123308 1.9309 18.3858
1 4.02974 -0.10817 16.1065
1 6.19646 1.98839 16.1277
1 6.01349 0.290307 18.3703
1 3.80075 1.94736 18.17
1 8.23771 -0.0388054 16.1987
1 10.4438 1.86444 16.4956
1 10.2489 20.2569 18.2739
1 8.0928 2.01555 18.2877
1 12.3075 20.3249 16.388
1 14.4074 1.92674 16.357
1 14.4078 0.0102031 18.3467
1 12.2992 2.01444 18.2347
1 16.2751 20.3939 16.2902
1 18.5587 1.95038 16.2184
1 18.4983 -0.127467 18.4525
1 16.5257 2.12301 18.3329
1 0.229341 4.0755 16.3186
1 2.05865 6.10985 16.1812
1 2.08341 3.98502 18.2487
1 -0.09226 6.14866 18.3221
1 3.96534 3.97802 16.2272
1 6.07815 6.0065 16.3765
1 5.94301 4.0199 18.4337
1 3.70063 6.09749 18.4918
1 8.07676 3.90833 16.2292
1 10.2028 6.02358 16.3067
1 10.2114 4.02057 18.1153
1 8.14047 6.00772 18.0984
1 12.3709 3.93281 16.2729
1 14.386 6.24895 16.0483
1 14.2846 4.18717 18.3021
1 12.2038 6.01876 18.2473
1 16.3365 3.98757 16.1519
1 18.3778 6.07293 16.0785
1 18.6041 4.18389 18.1555
1 16.3662 6.09114 18.3395
1 20.3062 8.29154 16.4621
1 1.8439 10.1739 16.2941
1 1.75858 8.12472 18.3324
1 20.3435 10.1964 18.2413
1 4.00765 7.94969 16.4154
1 5.91864 10.1165 16.2293
1 6.30887 8.06606 18.5023
1 4.03411 10.0163 18.1884
1 8.13266 8.15242 16.1211
1 10.2335 10.0321 16.2324
1 10.1028 8.00705 18.2597
1 8.08093 10.2938 18.3417
1 12.2613 8.11203 16.3819
1 14.2224 10.297 16.1363
1 14.2505 8.11219 18.2064
1 11.9158 10.1 18.3846
1 16.5019 8.2919 16.2488
1 18.3347 10.1986 16.4786
1 18.3267 8.08132 18.4462
1 16.0788 10.1784 18.4049
1 20.3237 12.1096 16.29
1 2.09646 14.1041 16.2009
1 2.07223 12.1056 18.4697
1 -0.0474056 14.2786 18.1612
1 3.89646 12.1566 16.273
1 6.03218 14.3395 16.4853
1 6.00575 12.1836 18.3474
1 3.97786 14.0753 18.4128
1 8.0642 12.1747 16.0749
1 10.1967 14.2951 16.2298
1 10.1232 12.1186 18.2834
1 8.23546 14.3148 18.4113
1 12.0639 12.3013 16.1776
1 14.1358 14.4086 16.2538
1 14.0554 12.1898 18.3648
1 12.1164 14.2427 18.4619
1 16.2794 12.3831 16.5273
1 18.5032 14.0166 16.3622
1 18.2428 12.2019 18.451
1 16.2184 14.1666 18.4704
1 20.3074 16.2134 16.4083
1 2.18532 18.3972 16.4788
1 2.0833 16.4069 18.3894
1 -0.0925325 18.3183 18.3564
1 3.86691 16.1894 16.2425
1 6.07447 18.5098 16.3507
1 5.97531 16.2914 18.1454
1 4.2582 18.4726 18.4065
1 8.14273 16.188 16.2381
1 10.314 18.2698 16.414
1 10.1015 16.3661 18.4886
1 8.13579 18.5339 18.2751
1 12.256 16.2643 16.5063
1 14.2142 18.2906 16.2394
1 14.3383 16.3125 18.3978
1 12.294 18.2236 18.5715
1 16.5485 16.2584 16.1946
1 18.4706 18.2614 16.3619
1 18.3098 16.2115 18.3472
1 16.2421 18.4102 18.2913
500
Atoms. Timestep: 250
1 -0.363993 -0.161975 20.4551
1 2.02693 1.9498 -0.0736648
1 1.84303 20.5261 1.89188
1 -0.0866501 1.89619 2.04551
1 3.91524 20.2088 -0.251363
1 5.99759 1.88371 -0.307845
1 5.77287 -0.238463 1.8813
1 3.90787 1.88877 1.80482
1 8.05883 -0.0899171 20.4205
1 10.0684 2.02919 20.4446
1 10.2388 20.3863 1.81595
1 7.89413 1.80976 1.8621
1 12.1884 0.00884198 20.228
1 14.1866 1.99981 -0.468196
1 14.365 -0.0715463 1.92531
1 12.2546 1.76232 1.98836
1 16.0356 -0.178982 20.2666
1 18.3571 1.79869 20.3785
1 18.3706 -0.0654139 2.07272
1 16.489 1.8759 1.99745
1 -0.102812 3.80687 20.2383
1 1.95536 5.95288 -0.181383
1 1.68461 4.01792 2.18802
1 -0.0309975 6.04058 1.82038
1 3.96502 3.9921 -0.323511
1 6.01308 6.11446 20.2078
1 5.99445 3.9012 1.84693
1 3.92854 6.03024 1.74426
1 7.77478 4.06274 20.531
1 9.97053 6.02003 20.5766
1 10.229 3.80704 1.95246
1 7.99403 5.88346 2.0418
1 12.0803 3.83303 20.3773
1 14.3367 5.91494 20.2947
1 14.2416 3.7794 1.80184
1 12.2545 5.9196 1.68548
1 16.3375 3.79801 20.3516
1 18.5794 6.0359 20.5901
1 18.4936 4.1134 1.7717
1 16.3376 6.11997 1.91586
1 20.5462 8.31852 20.1872
1 1.93032 10.3215 -0.288762
1 2.11206 8.10873 1.73851
1 20.5115 10.143 1.93888
1 4.06694 8.16862 -0.0910475
1 6.00934 10.1218 -0.0990015
1 6.01751 7.95508 1.89118
1 3.98434 10.196 1.8439
1 8.20808 7.99612 0.0621414
1 10.1735 10.2411 20.3131
1 10.288 8.00624 2.12283
1 8.16599 9.97719 2.05455
1 12.4077 8.18605 20.306
1 14.2489 10.0713 20.448
1 14.3988 8.18215 1.8719
1 12.3077 10.0333 2.02299
1 16.3003 8.00175 -0.233119
1 18.264 10.1152 -0.317941
1 18.6629 8.0931 1.86607
1 16.3954 10.2288 2.06246
1 20.4473 12.2566 20.393
1 1.99877 14.3504 20.6218
1 1.88581 12.2605 1.87708
1 -0.203828 14.3646 1.94091
1 3.89203 12.3499 -0.0883094
1 5.93375 14.4812 20.1841
1 6.15863 12.1091 1.87673
1 4.03022 14.1187 2.05723
1 8.09433 12.0521 0.146851
1 10.1465 14.1962 0.00525705
1 10.2165 12.0842 1.82958
1 7.86164 14.1741 1.87467
1 12.2585 12.0514 20.2984
1 14.0762 14.1113 -0.392745
1 14.35 12.201 2.06089
1 12.063 14.3483 1.78452
1 16.373 12.3745 -0.0274589
1 18.3489 14.2235 -0.249561
1 18.4447 12.0108 1.94762
1 16.3234 14.3187 1.89877
1 20.1573 16.4074 20.1026
1 1.86858 18.2069 20.2746
1 1.64198 16.3159 1.77452
1 -0.08266 18.5019 1.813
1 4.02569 16.4071 0.0599176
1 6.10562 18.3259 20.4303
1 5.75541 16.2125 2.14443
1 3.84452 18.4076 1.98278
1 8.04642 16.4659 20.5046
1 10.0413 18.4734 0.00325907
1 10.2053 16.3201 1.84072
1 8.04826 18.3047 1.97914
1 12.0435 16.3515 -0.227872
1 13.9529 18.3174 -0.199876
1 14.0474 16.0348 1.87194
1 12.0386 18.4867 1.89892
1 16.2875 15.9765 -0.398446
1 18.206 18.2485 -0.185375
1 18.4091 16.4759 1.80218
1 16.0463 18.0562 1.78786
1 20.4484 -0.132285 4.03785
1 2.10665 2.0145 4.09956
1 1.90703 -0.319659 6.12259
1 -0.0240068 1.9199 6.14308
1 3.91216 -0.142213 4.05731
1 5.93964 1.90068 4.07243
1 6.11912 -0.0800987 6.10547
1 3.9613 1.90035 6.25729
1 8.02903 20.3321 3.97939
1 10.2191 1.76559 3.80096
1 10.3072 20.5082 6.03859
1 7.99572 1.98744 5.98501
1 12.2484 20.5203 4.03257
1 14.3765 1.9382 4.13851
1 14.1981 20.3322 6.14844
1 12.0438 1.939 6.0521
1 16.271 -0.26762 4.10559
1 18.4998 1.66253 4.01727
1 18.3953 -0.305809 6.26829
1 16.4646 2.05831 6.06438
1 20.3064 3.84682 4.0186
1 1.96554 6.28707 3.94016
1 1.83223 4.04295 5.9749
1 20.5637 6.01283 5.84225
1 4.05876 3.91493 3.83099
1 5.87394 5.99995 4.01391
1 5.83003 4.05957 5.93893
1 3.87944 6.24323 5.93506
1 8.06385 3.82303 3.82865
1 9.97037 5.80002 3.9252
1 9.77637 3.73687 5.83101
1 7.92992 5.95538 5.94005
1 12.3192 3.98484 4.00105
1 14.326 6.04608 3.86596
1 14.3678 4.05997 6.07028
1 11.9995 5.92106 5.8513
1 16.4556 4.0206 3.92634
1 18.4464 6.03985 3.83592
1 18.47 4.2475 6.08253
1 16.2614 5.92662 6.02941
1 0.0295573 8.05055 3.8712
1 2.21309 10.2803 3.77389
1 2.10655 8.24231 5.99194
1 0.0155674 10.1017 6.09737
1 3.99528 8.23607 3.90581
1 6.04603 10.1281 3.86644
1 6.01931 8.19422 5.94542
1 3.85578 10.254 5.90187
1 8.24778 7.93506 3.96066
1 10.1422 10.2136 3.93729
1 10.1392 8.06938 5.81764
1 7.98741 10.06 5.97887
1 12.3564 7.99614 3.80483
1 14.2716 10.1124 4.2551
1 14.1833 7.98021 6.04577
1 12.064 10.0812 5.93122
1 16.4088 8.07082 4.03501
1 18.5173 10.1997 4.05597
1 18.5259 8.04516 5.84465
1 16.4268 10.1572 6.22889
1 -0.25584 12.388 3.9201
1 2.07049 14.0246 4.1184
1 1.95538 12.164 6.03694
1 20.3895 14.327 5.86607
1 4.24135 12.1306 3.85725
1 6.05314 14.4142 4.17467
1 6.14496 12.0802 6.01185
1 3.8648 14.1592 6.24833
1 8.07869 12.258 4.10832
1 9.98022 14.1372 3.84696
1 10.2408 12.0383 6.01679
1 8.08045 14.1584 6.16314
1 12.1406 12.2154 3.84582
1 14.2567 14.2373 4.2521
1 14.1813 12.2584 5.99648
1 12.1724 14.2231 6.04117
1 16.1628 12.1909 4.14386
1 18.167 14.2088 3.8872
1 18.4997 12.0405 5.94183
1 16.2981 13.975 6.04369
1 -0.180828 16.4943 3.8782
1 1.87984 18.423 3.98693
1 1.86879 16.3921 5.95443
1 20.3137 18.2568 6.13807
1 3.64477 16.3925 4.05997
1 5.94199 18.4633 3.98989
1 5.88644 16.4876 6.04165
1 3.93176 18.5562 5.96598
1 8.08409 16.2815 4.14475
1 10.1389 18.5023 4.04848
1 10.0761 16.1352 6.0562
1 8.14164 18.2692 6.31814
1 12.2723 16.2725 3.89604
1 14.1258 18.3083 3.70601
1 14.2862 16.3583 6.10099
1 12.1537 18.4906 5.9857
1 16.2151 16.2883 3.91484
1 18.268 18.4573 4.09942
1 18.4124 16.2009 5.91517
1 16.4039 18.2549 6.02499
1 20.5767 -0.262422 8.13889
1 2.1087 1.80176 8.10379
1 1.72448 20.4635 10.2812
1 0.0452989 1.97309 10.0044
1 3.98196 20.3238 8.10523
1 5.93937 1.96304 8.01538
1 6.00687 20.3886 10.0661
1 3.79382 2.10403 10.3399
1 8.21043 20.5332 8.02931
1 10.1747 1.77685 8.1961
1 10.1323 -0.207173 10.1836
1 7.89046 1.68546 10.0616
1 12.2545 20.3174 8.28227
1 13.8873 1.95347 7.94536
1 14.2852 0.0894296 10.3935
1 12.1911 2.03145 10.1575
1 16.124 20.5196 8.16939
1 18.4195 1.79007 8.02206
1 18.4527 20.5048 10.1335
1 16.4502 1.87943 10.1619
1 20.6056 3.96688 8.05393
1 1.72538 6.31835 8.14218
1 1.85167 4.18802 10.0336
1 -0.244262 6.01933 10.2535
1 3.83922 4.03175 7.93405
1 6.00557 5.95309 8.01618
1 5.99675 3.89624 10.226
1 3.99679 5.98683 10.1867
1 8.09988 3.74389 8.1347
1 10.0854 6.13498 8.03612
1 10.0757 4.16264 10.0294
1 8.06132 6.08377 10.1229
1 11.884 4.06274 8.15258
1 14.3545 6.02239 8.178
1 14.2351 3.66438 10.1896
1 12.3676 5.9625 10.0659
1 16.3248 3.82401 8.15939
1 18.3165 6.00592 8.07434
1 18.5486 3.77489 9.96164
1 16.4542 6.0636 9.99194
1 20.443 7.98514 7.93866
1 1.82495 10.1372 8.11991
1 1.83245 8.1407 10.2612
1 -0.158809 10.0866 10.2579
1 4.06738 7.97966 8.08294
1 5.71499 10.1872 8.1104
1 6.0322 8.03736 10.1443
1 3.8211 10.0803 10.0416
1 7.90864 8.2308 8.06793
1 10.1464 10.1179 7.94051
1 10.1114 8.18564 10.0299
1 8.26697 10.0346 9.91387
1 12.1929 8.01847 8.13382
1 14.2066 10.0697 8.02944
1 14.2477 8.11214 10.1485
1 12.1144 10.2592 10.0103
1 16.4244 8.16373 8.03375
1 18.4868 10.0351 7.97102
1 18.3712 8.18531 10.2868
1 16.2173 10.1214 10.2654
1 20.4289 12.2203 8.02081
1 1.72167 14.1373 8.13481
1 1.94168 12.1274 10.1834
1 20.2608 14.1423 10.2181
1 3.87852 12.1597 8.01645
1 6.03456 14.1503 8.13532
1 5.93459 12.2802 10.0904
1 4.07683 14.1785 9.96861
1 8.16189 12.2309 8.07753
1 10.1811 14.2938 8.0525
1 10.3557 12.2518 10.1353
1 8.20153 14.2051 10.063
1 12.3551 12.1456 7.95177
1 14.3447 14.2047 8.02289
1 14.156 12.0367 10.1154
1 12.121 14.31 10.1604
1 16.247 12.1752 8.14517
1 18.1938 14.1438 8.01774
1 18.5107 12.0427 10.1287
1 16.3426 13.9723 10.3092
1 -0.270339 16.2292 8.0925
1 1.90349 18.2711 8.11969
1 1.77489 16.195 10.1186
1 -0.12171 18.2117 10.2629
1 3.87863 16.3714 8.15657
1 6.08448 18.3845 8.12771
1 6.15015 16.312 10.0807
1 3.85779 18.2522 10.0947
1 7.90982 16.3371 8.11479
1 10.1952 18.6036 8.24137
1 10.0471 16.3082 10.0941
1 8.04018 18.508 10.0983
1 12.1012 16.2995 7.99227
1 14.3731 18.2192 8.17302
1 14.1732 16.1045 10.1187
1 12.413 18.525 10.4321
1 16.4935 16.1522 8.01594
1 18.3289 18.2241 8.14769
1 18.3867 16.2212 10.2467
1 16.3733 18.4407 10.3146
1 20.5119 -0.0110272 12.4496
1 1.76685 2.12079 12.3574
1 1.99174 20.3799 14.1463
1 20.0551 2.15861 14.3176
1 3.93727 20.5143 12.086
1 5.85537 1.97632 12.3572
1 5.76161 20.2916 14.305
1 3.92115 2.14689 14.3523
1 8.11719 20.3995 12.2104
1 9.90968 1.99918 12.1775
1 10.0407 -0.22087 14.1579
1 7.82933 1.75942 14.1401
1 11.9025 20.5503 12.1695
1 14.1944 2.04787 12.2733
1 14.1313 20.457 14.1806
1 12.0465 1.95576 14.1165
1 16.3525 20.4255 12.278
1 18.2611 2.00857 12.0402
1 18.2754 20.4509 14.3565
1 16.3773 2.00159 14.256
1 -0.259482 3.96036 12.2394
1 1.88469 5.96194 12.3187
1 1.85963 4.08782 14.2636
1 -0.0692712 6.06909 14.2027
1 3.88575 4.01458 12.1243
1 5.9772 5.91096 12.2236
1 6.12245 3.87652 14.3009
1 4.14482 6.04072 14.1756
1 7.98415 3.99273 12.1402
1 10.1163 5.94362 12.1773
1 9.95606 4.1483 14.4058
1 7.91688 6.1273 14.1338
1 12.2126 4.1324 12.2278
1 14.0751 5.87566 12.131
1 14.2601 3.89708 14.1916
1 11.9972 6.1 14.1689
1 16.2799 4.10039 11.9766
1 18.2095 5.94303 12.1019
1 18.2858 4.18949 14.1699
1 16.2099 6.06336 14.0041
1 -0.257876 8.10916 12.2021
1 1.95126 10.0612 12.3019
1 1.74105 8.0836 14.3155
1 20.3854 10.1312 14.2091
1 3.80997 7.82863 12.0648
1 6.09578 10.0842 11.963
1 6.15235 8.07138 14.0867
1 3.9453 9.80287 14.1521
1 8.05139 8.06672 12.1269
1 10.0457 10.1771 12.1995
1 10.1108 8.00168 14.1296
1 7.97573 10.2137 14.1893
1 12.0618 8.15906 11.8314
1 14.1632 10.0726 12.1811
1 14.0436 8.13252 14.0633
1 11.9781 9.88236 14.2611
1 16.2805 8.09914 12.1687
1 18.3592 10.1309 12.2277
1 18.2884 7.84695 14.2671
1 16.3672 9.90803 14.2794
1 -0.12065 12.2928 12.301
1 2.01507 14.3105 12.085
1 1.83975 12.0085 14.3513
1 20.7174 14.1167 14.2388
1 3.98705 12.0974 12.1769
1 6.12239 14.1298 12.3098
1 5.87644 12.1007 14.4375
1 3.84892 14.1675 13.9942
1 7.95556 12.1003 12.0304
1 10.1906 14.2162 12.2237
1 10.1584 12.2249 14.3191
1 8.12371 14.2366 14.1713
1 12.26 11.9246 12.4602
1 14.1283 14.0419 12.2077
1 14.5929 12.0941 14.1495
1 11.9821 14.2538 14.215
1 16.4643 12.3565 12.2917
1 18.3685 14.3085 12.3359
1 18.3563 12.0178 14.3658
1 16.2861 14.3076 14.2996
1 20.4399 16.3016 12.2284
1 2.05511 18.3952 12.0391
1 1.83097 16.3126 13.9363
1 20.4218 18.3298 14.263
1 3.84588 16.0651 11.9741
1 5.84123 18.2107 12.1001
1 5.93832 16.2932 14.3327
1 3.95672 18.2349 14.1118
1 8.2065 16.2248 12.12
1 10.1353 18.2609 12.26
1 10.2277 16.2695 14.2673
1 7.90683 18.2434 14.0827
1 12.058 16.2453 12.1167
1 14.1942 18.3058 12.4139
1 14.1215 16.1363 14.3034
1 12.1435 18.3042 14.3379
1 16.3567 16.3638 12.0183
1 18.4879 18.543 12.2208
1 18.4296 16.1438 14.1481
1 16.3356 18.3803 14.3878
1 20.6718 0.136873 16.1487
1 1.97943 1.95421 16.1321
1 1.86065 20.4803 18.322
1 -0.123584 1.79609 18.3376
1 3.97599 -0.235512 16.1838
1 6.1716 1.58778 16.348
1 5.99183 -0.366546 18.4121
1 3.90904 1.8337 18.1945
1 8.18143 -0.273371 16.3164
1 9.9851 1.8207 16.0655
1 10.0061 20.4539 18.287
1 8.08196 1.96313 18.3859
1 12.1629 20.5618 16.1225
1 14.2226 1.84459 16.5334
1 14.1605 -0.224615 18.175
1 12.0571 1.98649 18.389
1 16.325 20.3769 16.511
1 18.4799 1.8495 16.2583
1 18.3143 -0.177408 18.3006
1 16.4535 1.87326 18.482
1 -0.205563 4.37439 16.3522
1 1.99189 5.86511 16.2141
1 1.90044 3.89587 18.228
1 -0.00197082 6.09103 18.3559
1 4.12119 4.07076 16.3009
1 6.10611 6.21782 16.5056
1 5.99217 4.09868 18.3478
1 3.96142 6.15745 18.3452
1 8.19272 4.00955 16.4411
1 10.2001 6.24048 16.3553
1 10.0306 3.82055 18.4609
1 8.08619 6.22393 18.1725
1 12.2332 3.99648 16.2749
1 14.1535 6.03464 16.067
1 14.2081 3.94201 18.2505
1 11.9356 5.82763 18.5264
1 16.2298 3.75591 16.2899
1 18.0584 5.90929 16.1324
1 18.3446 3.91142 18.2843
1 16.4335 5.87796 18.3233
1 20.5116 7.98746 16.4389
1 1.93918 9.99038 16.2987
1 2.03501 8.16914 18.6592
1 20.3861 10.347 18.3254
1 3.87992 8.03251 16.3568
1 5.95031 9.96442 16.2781
1 6.0922 8.09252 18.5591
1 3.98975 9.94546 18.1799
1 7.91151 8.34324 16.2995
1 10.1796 10.2764 16.3645
1 10.2764 8.151 18.4891
1 8.09751 10.3104 18.383
1 12.2636 7.99189 16.4417
1 14.0954 10.1333 16.0765
1 14.3388 8.02999 18.3003
1 12.317 10.1482 18.2758
1 16.0753 7.98867 16.2102
1 18.4869 10.0683 16.4242
1 18.4291 7.72311 18.3169
1 16.1333 9.946 18.3968
1 20.5341 12.1565 16.2411
1 2.07455 14.0159 16.413
1 1.96484 12.4261 18.4622
1 -0.336299 14.2901 18.3187
1 3.88191 12.1955 16.3355
1 5.98111 14.2574 16.3962
1 6.01966 12.2171 18.4195
1 3.98055 14.1817 18.3838
1 8.03318 12.2576 16.1794
1 10.093 14.2806 16.2855
1 10.1327 12.3648 18.3715
1 8.22567 14.2635 18.5038
1 12.3032 12.0643 16.1251
1 14.0983 14.1954 16.3089
1 14.3548 12.0419 18.1606
1 12.1793 14.1257 18.3097
1 16.3607 11.9935 16.4163
1 18.5203 14.2398 16.2629
1 18.4982 12.4283 18.2286
1 16.0921 14.1899 17.94
1 20.5652 16.3633 16.3108
1 1.83698 18.5274 16.2125
1 2.11511 16.4344 18.3286
1 -0.131918 18.6856 18.4092
1 3.62016 16.1671 16.0574
1 6.04981 18.2141 16.2987
1 5.86856 16.238 18.0081
1 4.02057 18.448 18.25
1 8.16124 16.3822 16.0091
1 10.1085 18.3424 16.2574
1 10.0966 16.2621 18.4902
1 7.99675 18.0657 18.1723
1 12.0855 16.2484 16.4072
1 14.2616 18.2364 16.1233
1 14.2458 16.1531 18.1474
1 11.9996 18.4453 18.3705
1 16.3783 16.1585 16.1713
1 18.6911 18.3205 16.2898
1 18.2215 16.523 18.2594
1 15.9203 18.2489 18.4048
500
Atoms. Timestep: 500
1 -0.22577 -0.180544 20.4275
1 1.8838 1.8528 -0.0777459
1 1.79247 20.5557 1.89307
1 -0.13247 2.18676 1.97188
1 3.89922 20.3623 -0.0650025
1 6.05485 1.94911 0.031408
1 5.89163 0.0401086 2.06165
1 3.98127 2.05078 1.89697
1 8.19186 -0.112173 20.4276
1 10.1968 1.8956 20.6499
1 10.1691 20.2556 1.98015
1 8.16965 1.86275 2.08403
1 12.3603 -0.35017 20.425
1 14.169 1.75319 -0.133987
1 14.2803 0.0412977 2.01395
1 12.2577 1.87611 1.94112
1 16.195 -0.18353 20.4312
1 18.3323 2.01512 20.4798
1 18.3818 -0.0483155 2.06748
1 16.3458 1.8308 1.91584
1 -0.361189 3.98732 20.2398
1 1.8631 5.99153 0.0712097
1 1.81091 4.02129 2.02813
1 -0.240757 6.13584 2.04959
1 3.95545 4.03379 -0.0172296
1 5.99713 5.87437 20.3726
1 6.13277 3.89258 1.95017
1 4.12444 6.01315 2.04136
1 7.98432 3.8795 20.4317
1 9.88986 5.98195 20.3718
1 10.1601 4.05858 2.05954
1 8.03377 6.03827 2.08395
1 12.1919 4.09832 20.3962
1 14.2894 6.07621 20.2774
1 14.2171 3.90865 1.88207
1 12.2105 6.05472 1.93747
1 16.0722 3.87388 20.4461
1 18.1396 5.86897 20.4621
1 18.2241 3.97034 1.89017
1 16.2044 6.06 2.00936
1 20.5084 8.10043 20.4449
1 1.69613 10.1408 -0.301376
1 2.01559 7.85773 1.9958
1 20.5508 9.97775 2.04563
1 3.88541 7.95028 0.0747961
1 5.97179 9.82126 -0.167114
1 5.97023 8.0371 1.99668
1 3.67703 9.97636 1.86637
1 8.05139 7.96045 -0.161907
1 9.9849 10.0083 20.3641
1 10.129 7.92722 1.82576
1 7.85716 9.98038 1.7699
1 12.3291 7.81321 20.4444
1 14.2164 10.2649 20.4829
1 14.2799 8.14261 1.96613
1 12.1649 9.93086 1.8581
1 16.3269 8.15105 -0.218445
1 18.4525 9.96796 -0.335454
1 18.4559 7.97536 1.80244
1 16.411 10.1495 1.80071
1 20.2601 11.771 20.4791
1 2.0637 14.326 20.4078
1 1.71357 12.1332 1.90287
1 -0.0365843 14.1602 2.00127
1 3.99349 12.075 -0.306546
1 6.04271 14.0649 20.195
1 5.91332 12.0935 1.68924
1 3.96013 14.1065 1.80902
1 7.93073 11.8576 -0.163052
1 10.4939 14.1956 -0.129215
1 10.3446 12.0142 1.62531
1 7.96803 14.0118 1.55423
1 12.2409 12.1352 20.1449
1 14.3364 14.4024 -0.361656
1 14.2215 12.2698 1.94028
1 12.2403 14.5238 1.75559
1 16.3525 12.2176 -0.0186942
1 18.4963 14.0271 -0.100961
1 18.3299 12.2575 1.96903
1 16.3383 14.2361 1.87231
1 20.4384 16.2622 20.1874
1 1.81991 18.2775 20.4037
1 1.92654 16.1275 1.90674
1 -0.20998 18.2157 1.94134
1 4.04228 16.5191 -0.15859
1 6.07374 18.4732 20.5303
1 6.10958 16.2286 1.73674
1 3.92153 18.2072 1.9097
1 8.11044 16.1633 20.2088
1 10.105 18.2694 -0.143984
1 10.1846 16.235 1.97805
1 7.88153 18.3942 1.79933
1 12.1816 16.4177 -0.324835
1 14.2739 18.1188 0.151893
1 14.3439 16.2299 2.03753
1 11.983 18.3212 2.12824
1 16.4057 16.2981 -0.00189783
1 18.4842 18.3568 0.0458629
1 18.6811 16.1611 1.93397
1 16.4381 18.2078 2.04642
1 20.5814 -0.0251566 3.92858
1 1.95368 2.02211 3.88096
1 1.69167 -0.267704 6.07805
1 -0.276248 1.92766 6.02644
1 3.99087 -0.149398 4.01208
1 5.88742 1.90151 4.04917
1 6.08441 -0.0293044 5.80917
1 3.76456 1.89505 6.02312
1 7.99633 20.1717 3.89991
1 10.2765 1.93501 4.00094
1 10.0607 20.5246 5.92355
1 7.95386 2.12029 6.1021
1 12.1569 20.417 4.04731
1 14.2359 1.99799 4.05444
1 14.1202 20.4487 6.11587
1 12.1316 2.01524 6.04742
1 16.4308 -0.267284 3.98758
1 18.5092 1.76671 3.97484
1 18.2061 -0.221207 6.40245
1 16.3175 1.99677 5.79376
1 20.3763 3.86194 3.94165
1 1.90719 6.00073 4.08222
1 1.89688 4.1099 5.93936
1 20.6392 5.91592 6.17562
1 3.95669 4.05866 3.75041
1 6.04356 6.11883 4.13675
1 5.88271 4.04302 5.90574
1 3.83472 6.09751 6.11256
1 8.09916 4.16754 4.08375
1 10.1578 6.03222 4.08486
1 9.9053 3.98832 6.28538
1 8.15225 6.06313 6.0975
1 12.3432 4.03234 3.961
1 14.3266 6.06448 4.01378
1 14.2245 4.0048 5.95076
1 12.1372 5.92453 6.19951
1 16.3599 3.98866 3.87469
1 18.3352 6.07938 3.96182
1 18.1035 4.14578 6.2672
1 16.1903 6.04801 6.08011
1 -0.248635 7.97415 4.12306
1 1.82921 10.0869 4.0161
1 1.8604 8.18862 6.17004
1 -0.335878 9.96383 5.93179
1 3.93406 7.97894 3.98244
1 5.9288 10.235 3.73427
1 5.94467 8.11264 5.95658
1 3.95446 10.2575 5.87736